<?xml version="1.0"?>
<VTKFile type="UnstructuredGrid" version="0.1" byte_order="LittleEndian">
  <UnstructuredGrid>
    <Piece NumberOfPoints="101" NumberOfCells="42">
      <PointData Scalars="NodeId">
        <DataArray type="Int32" Name="NodeId" format="ascii">
          1
          2
          3
          4
          5
          6
          7
          8
          9
          10
          11
          12
          13
          14
          15
          16
          17
          18
          19
          20
          21
          22
          23
          24
          25
          26
          27
          28
          29
          30
          31
          32
          33
          34
          35
          36
          37
          38
          39
          40
          41
          42
          43
          44
          45
          46
          47
          48
          49
          50
          51
          52
          53
          54
          55
          56
          57
          58
          59
          60
          61
          62
          63
          64
          65
          66
          67
          68
          69
          70
          71
          72
          73
          74
          75
          76
          77
          78
          79
          80
          81
          82
          83
          84
          85
          86
          87
          88
          89
          90
          91
          92
          93
          94
          95
          96
          97
          98
          99
          100
          101
        </DataArray>
      </PointData>
      <Points>
        <DataArray type="Float64" NumberOfComponents="3" format="ascii">
          0.0 0.0 0.0
          1.0 0.0 0.0
          1.0 1.0 0.0
          0.0 1.0 0.0
          0.2499999999994124 0.0 0.0
          0.4999999999986942 0.0 0.0
          0.7499999999993417 0.0 0.0
          0.1249999999997062 0.0 0.0
          0.3749999999990533 0.0 0.0
          0.624999999999018 0.0 0.0
          0.8749999999996709 0.0 0.0
          1.0 0.2499999999994124 0.0
          1.0 0.4999999999986942 0.0
          1.0 0.7499999999993417 0.0
          1.0 0.1249999999997062 0.0
          1.0 0.3749999999990533 0.0
          1.0 0.624999999999018 0.0
          1.0 0.8749999999996709 0.0
          0.7500000000003465 1.0 0.0
          0.500000000002059 1.0 0.0
          0.2500000000010404 1.0 0.0
          0.8750000000001732 1.0 0.0
          0.6250000000012028 1.0 0.0
          0.3750000000015497 1.0 0.0
          0.1250000000005202 1.0 0.0
          0.0 0.7500000000003465 0.0
          0.0 0.500000000002059 0.0
          0.0 0.2500000000010404 0.0
          0.0 0.8750000000001732 0.0
          0.0 0.6250000000012028 0.0
          0.0 0.3750000000015497 0.0
          0.0 0.1250000000005202 0.0
          0.3640932128839346 0.7867687832230399 0.0
          0.2110423218192966 0.3753337416957935 0.0
          0.6146003733357942 0.254486997910627 0.0
          0.8080509614599702 0.6243689539557387 0.0
          0.1979210047255826 0.6215671767908415 0.0
          0.4308090314147044 0.5056502726999199 0.0
          0.3712961061742489 0.216799006947985 0.0
          0.6139924015723895 0.7478815024664037 0.0
          0.8112741566735278 0.3855439771726545 0.0
          0.6557453848912772 0.5035863408410688 0.0
          0.1830127018930926 0.816987298107279 0.0
          0.8169872981074592 0.8169872981071902 0.0
          0.1830127018926974 0.1830127018931336 0.0
          0.8351749060017328 0.1780061950165388 0.0
          0.5227047023752494 0.3800686353052735 0.0
          0.4010525687944766 0.3612246398239525 0.0
          0.4929482397550216 0.235643002429306 0.0
          0.3974511221493195 0.6462095279614799 0.0
          0.522400716493547 0.6267658875831619 0.0
          0.4890428072281621 0.7673251428447219 0.0
          0.6351728791135357 0.3790366693758479 0.0
          0.5432772081529909 0.5046183067704944 0.0
          0.6348688932318334 0.6257339216537363 0.0
          0.3209256766170006 0.4404920071978567 0.0
          0.2911692139967728 0.2960663743218893 0.0
          0.2810071088047586 0.7041679800069407 0.0
          0.3143650180701435 0.5636087247453807 0.0
          0.7110216815161798 0.6861252282110712 0.0
          0.7318981731756238 0.5639776473984037 0.0
          0.3070466064424875 0.89338439161152 0.0
          0.4320466064429968 0.89338439161152 0.0
          0.1055211609096483 0.3126668708484169 0.0
          0.1055211609096483 0.4376668708489262 0.0
          0.9040254807299851 0.6871844769775401 0.0
          0.9040254807299851 0.5621844769772164 0.0
          0.682300186667568 0.1272434989553135 0.0
          0.5573001866672442 0.1272434989553135 0.0
          0.712937265004661 0.3200154875416408 0.0
          0.7335097707824025 0.4445651590068617 0.0
          0.0989605023627913 0.5607835883964503 0.0
          0.0989605023627913 0.6857835883955941 0.0
          0.5569962007872242 0.8739407512332018 0.0
          0.681996200786368 0.8739407512332018 0.0
          0.4356480530864715 0.1083995034739925 0.0
          0.3106480530868306 0.1083995034739925 0.0
          0.9056370783367639 0.4427719885856743 0.0
          0.9056370783367639 0.3177719885860334 0.0
          0.2044816632724396 0.4984504592433175 0.0
          0.809662559066749 0.5049564655641966 0.0
          0.0915063509465463 0.7834936490538127 0.0
          0.0915063509465463 0.9084936490536395 0.0
          0.7834936490539028 0.9084936490535951 0.0
          0.9084936490537296 0.9084936490535951 0.0
          0.2165063509470665 0.9084936490536395 0.0
          0.09150635094634868 0.09150635094656678 0.0
          0.09150635094634868 0.216506350947087 0.0
          0.2165063509460549 0.09150635094656678 0.0
          0.9084936490537296 0.783493649053266 0.0
          0.9175874530008664 0.0890030975082694 0.0
          0.7925874530005372 0.0890030975082694 0.0
          0.9175874530008664 0.2140030975079756 0.0
          0.1904668533093376 0.7192772374490602 0.0
          0.7154898498399244 0.7824344002867969 0.0
          0.2771544040334731 0.1999058544205593 0.0
          0.8232245313376303 0.2817750860945967 0.0
          0.2735529573885136 0.8018780406651594 0.0
          0.8125191297837147 0.7206781260314644 0.0
          0.197027511855997 0.2791732217944635 0.0
          0.7248876396687636 0.2162465964635829 0.0
        </DataArray>
      </Points>
      <Cells>
        <DataArray type="Int32" Name="connectivity" format="ascii">
          34 37 38 46 47 48
          32 37 39 49 50 51
          37 34 41 46 52 53
          39 37 41 50 53 54
          37 33 38 55 56 47
          32 36 37 57 58 49
          35 39 41 59 54 60
          19 20 32 23 61 62
          26 27 33 30 63 64
          12 13 35 16 65 66
          5 6 34 9 67 68
          34 40 41 69 70 52
          25 26 36 29 71 72
          18 19 39 22 73 74
          4 5 38 8 75 76
          11 12 40 15 77 78
          36 33 37 79 55 58
          26 33 36 64 79 71
          19 32 39 62 51 73
          5 34 38 68 48 75
          12 35 40 66 80 77
          3 25 42 28 81 82
          2 18 43 21 83 84
          20 3 42 24 82 85
          27 0 44 31 86 87
          0 4 44 7 88 86
          13 2 43 17 84 89
          6 1 45 10 90 91
          1 11 45 14 92 90
          25 36 42 72 93 81
          18 39 43 74 94 83
          4 38 44 76 95 88
          11 40 45 78 96 92
          32 20 42 61 85 97
          35 13 43 65 89 98
          33 27 44 63 87 99
          34 6 45 67 91 100
          36 32 42 57 97 93
          38 33 44 56 99 95
          39 35 43 59 98 94
          40 34 45 69 100 96
          40 35 41 80 60 70
        </DataArray>
        <DataArray type="Int32" Name="offsets" format="ascii">
          6
          12
          18
          24
          30
          36
          42
          48
          54
          60
          66
          72
          78
          84
          90
          96
          102
          108
          114
          120
          126
          132
          138
          144
          150
          156
          162
          168
          174
          180
          186
          192
          198
          204
          210
          216
          222
          228
          234
          240
          246
          252
        </DataArray>
        <DataArray type="UInt8" Name="types" format="ascii">
          22
          22
          22
          22
          22
          22
          22
          22
          22
          22
          22
          22
          22
          22
          22
          22
          22
          22
          22
          22
          22
          22
          22
          22
          22
          22
          22
          22
          22
          22
          22
          22
          22
          22
          22
          22
          22
          22
          22
          22
          22
          22
        </DataArray>
      </Cells>
    </Piece>
  </UnstructuredGrid>
</VTKFile>
