<?xml version="1.0"?>
<VTKFile type="UnstructuredGrid" version="0.1" byte_order="LittleEndian">
  <UnstructuredGrid>
    <Piece NumberOfPoints="36" NumberOfCells="13">
      <PointData Scalars="NodeId">
        <DataArray type="Int32" Name="NodeId" format="ascii">
          1
          2
          3
          4
          5
          6
          7
          8
          9
          10
          11
          12
          13
          14
          15
          16
          17
          18
          19
          20
          21
          22
          23
          24
          25
          26
          27
          28
          29
          30
          31
          32
          33
          34
          35
          36
        </DataArray>
      </PointData>
      <Points>
        <DataArray type="Float64" NumberOfComponents="3" format="ascii">
          0.0 0.0 0.0
          1.5 0.0 0.0
          1.5 0.5 0.0
          1.0 0.5 0.0
          1.0 1.0 0.0
          0.5 1.0 0.0
          0.5 0.5 0.0
          0.0 0.5 0.0
          0.7499999999971457 0.0 0.0
          0.3749999999985729 0.0 0.0
          1.124999999998573 0.0 0.0
          1.5 0.25 0.0
          1.25 0.5 0.0
          1.0 0.75 0.0
          0.75 1.0 0.0
          0.5 0.75 0.0
          0.25 0.5 0.0
          0.0 0.25 0.0
          0.3124999999992865 0.25 0.0
          1.187499999999287 0.25 0.0
          0.75 0.75 0.0
          0.75 0.5 0.0
          0.6249999999985729 0.25 0.0
          0.8749999999985729 0.25 0.0
          0.9687499999982161 0.125 0.0
          1.093749999999643 0.375 0.0
          0.4062499999996432 0.375 0.0
          0.5312499999982161 0.125 0.0
          0.1562499999996432 0.125 0.0
          0.1562499999996432 0.375 0.0
          1.343749999999643 0.375 0.0
          1.343749999999643 0.125 0.0
          0.875 0.875 0.0
          0.875 0.625 0.0
          0.625 0.625 0.0
          0.625 0.875 0.0
        </DataArray>
      </Points>
      <Cells>
        <DataArray type="Int32" Name="connectivity" format="ascii">
          3 6 8 21 22 23
          3 8 19 23 24 25
          8 6 18 22 26 27
          7 0 18 17 28 29
          1 2 19 11 30 31
          2 3 19 12 25 30
          3 4 20 13 32 33
          6 3 20 21 33 34
          4 5 20 14 35 32
          5 6 20 15 34 35
          6 7 18 16 29 26
          0 8 18 9 27 28
          8 1 19 10 31 24
        </DataArray>
        <DataArray type="Int32" Name="offsets" format="ascii">
          6
          12
          18
          24
          30
          36
          42
          48
          54
          60
          66
          72
          78
        </DataArray>
        <DataArray type="UInt8" Name="types" format="ascii">
          22
          22
          22
          22
          22
          22
          22
          22
          22
          22
          22
          22
          22
        </DataArray>
      </Cells>
    </Piece>
  </UnstructuredGrid>
</VTKFile>
